# Turbulence results from CFL3D, Re_H=36,000, SST model
# Note: extraction at x/H=-4 was at nearest cell-center
VARIABLES = "x/H","y/H","u'v'/(Uref^2)"
ZONE T="x/H=approx -4"
 -3.953960419E+00 1.000075221E+00 -2.498838636E-10
 -3.953960419E+00 1.000230551E+00 -4.021889666E-08
 -3.953960419E+00 1.000396132E+00 -8.698564784E-07
 -3.953960419E+00 1.000572562E+00 -7.380715942E-06
 -3.953960419E+00 1.000760674E+00 -3.792073039E-05
 -3.953960419E+00 1.000961065E+00 -1.436859602E-04
 -3.953960419E+00 1.001174688E+00 -4.446096718E-04
 -3.953960419E+00 1.001402378E+00 -1.190667739E-03
 -3.953960419E+00 1.001644969E+00 -2.858592197E-03
 -3.953960419E+00 1.001903653E+00 -6.289581768E-03
 -3.953960419E+00 1.002179265E+00 -1.285574026E-02
 -3.953960419E+00 1.002472997E+00 -2.460132167E-02
 -3.953960419E+00 1.002786040E+00 -4.423880577E-02
 -3.953960419E+00 1.003119588E+00 -7.482724637E-02
 -3.953960419E+00 1.003475189E+00 -1.190201417E-01
 -3.953960419E+00 1.003854156E+00 -1.780345142E-01
 -3.953960419E+00 1.004257917E+00 -2.508488297E-01
 -3.953960419E+00 1.004688382E+00 -3.341969550E-01
 -3.953960419E+00 1.005146980E+00 -4.234512150E-01
 -3.953960419E+00 1.005635858E+00 -5.138756633E-01
 -3.953960419E+00 1.006156802E+00 -6.015936136E-01
 -3.953960419E+00 1.006711960E+00 -6.847105622E-01
 -3.953960419E+00 1.007303476E+00 -7.566506267E-01
 -3.953960419E+00 1.007933974E+00 -8.220267296E-01
 -3.953960419E+00 1.008605838E+00 -8.822253346E-01
 -3.953960419E+00 1.009321809E+00 -9.371014237E-01
 -3.953960419E+00 1.010084748E+00 -9.867192507E-01
 -3.953960419E+00 1.010897756E+00 -1.031303525E+00
 -3.953960419E+00 1.011764169E+00 -1.071169496E+00
 -3.953960419E+00 1.012687325E+00 -1.106720090E+00
 -3.953960419E+00 1.013671041E+00 -1.138373971E+00
 -3.953960419E+00 1.014719367E+00 -1.166561007E+00
 -3.953960419E+00 1.015836239E+00 -1.191704273E+00
 -3.953960419E+00 1.017026424E+00 -1.211623430E+00
 -3.953960419E+00 1.018294573E+00 -1.229917645E+00
 -3.953960419E+00 1.019645691E+00 -1.246217966E+00
 -3.953960419E+00 1.021085262E+00 -1.260673046E+00
 -3.953960419E+00 1.022619009E+00 -1.273490548E+00
 -3.953960419E+00 1.024253130E+00 -1.284851313E+00
 -3.953960419E+00 1.025994062E+00 -1.294912577E+00
 -3.953960419E+00 1.027848840E+00 -1.303810835E+00
 -3.953960419E+00 1.029824734E+00 -1.311665177E+00
 -3.953960419E+00 1.031929612E+00 -1.318579316E+00
 -3.953960419E+00 1.034171939E+00 -1.324643373E+00
 -3.953960419E+00 1.036560416E+00 -1.329936028E+00
 -3.953960419E+00 1.039104462E+00 -1.334525704E+00
 -3.953960419E+00 1.041814327E+00 -1.338472247E+00
 -3.953960419E+00 1.044700623E+00 -1.341827273E+00
 -3.953960419E+00 1.047774553E+00 -1.344636083E+00
 -3.953960419E+00 1.051048160E+00 -1.346937180E+00
 -3.953960419E+00 1.054534435E+00 -1.348764181E+00
 -3.953960419E+00 1.058246851E+00 -1.350145578E+00
 -3.953960419E+00 1.062199831E+00 -1.351105571E+00
 -3.953960419E+00 1.066408634E+00 -1.351664186E+00
 -3.953960419E+00 1.070889711E+00 -1.351837754E+00
 -3.953960419E+00 1.075660229E+00 -1.351639390E+00
 -3.953960419E+00 1.080738425E+00 -1.351078749E+00
 -3.953960419E+00 1.086143851E+00 -1.350162387E+00
 -3.953960419E+00 1.091896892E+00 -1.348894358E+00
 -3.953960419E+00 1.098019600E+00 -1.347275376E+00
 -3.953960419E+00 1.104534984E+00 -1.345303893E+00
 -3.953960419E+00 1.111467361E+00 -1.342975140E+00
 -3.953960419E+00 1.118842840E+00 -1.340282321E+00
 -3.953960419E+00 1.126688600E+00 -1.337215424E+00
 -3.953960419E+00 1.135033727E+00 -1.333762050E+00
 -3.953960419E+00 1.143908858E+00 -1.329906821E+00
 -3.953960419E+00 1.153346181E+00 -1.325631618E+00
 -3.953960419E+00 1.163379788E+00 -1.320915461E+00
 -3.953960419E+00 1.174045801E+00 -1.315733910E+00
 -3.953960419E+00 1.185382128E+00 -1.310059547E+00
 -3.953960419E+00 1.197428584E+00 -1.303861737E+00
 -3.953960419E+00 1.210227251E+00 -1.297105432E+00
 -3.953960419E+00 1.223822355E+00 -1.289752603E+00
 -3.953960419E+00 1.238260269E+00 -1.281759858E+00
 -3.953960419E+00 1.253589869E+00 -1.273079753E+00
 -3.953960419E+00 1.269862056E+00 -1.263659954E+00
 -3.953960419E+00 1.287130356E+00 -1.253441572E+00
 -3.953960419E+00 1.305450678E+00 -1.242360473E+00
 -3.953960419E+00 1.324881554E+00 -1.230344772E+00
 -3.953960419E+00 1.345483899E+00 -1.217315316E+00
 -3.953960419E+00 1.367321014E+00 -1.203184366E+00
 -3.953960419E+00 1.390458822E+00 -1.187854648E+00
 -3.953960419E+00 1.414965987E+00 -1.171219826E+00
 -3.953960419E+00 1.440913320E+00 -1.153161526E+00
 -3.953960419E+00 1.468374014E+00 -1.134302139E+00
 -3.953960419E+00 1.497423530E+00 -1.112945914E+00
 -3.953960419E+00 1.528139830E+00 -1.089053035E+00
 -3.953960419E+00 1.560602427E+00 -1.063110709E+00
 -3.953960419E+00 1.594892859E+00 -1.034822583E+00
 -3.953960419E+00 1.631094337E+00 -1.003860950E+00
 -3.953960419E+00 1.669291139E+00 -9.698504806E-01
 -3.953960419E+00 1.709568977E+00 -9.323390722E-01
 -3.953960419E+00 1.752013683E+00 -8.907607794E-01
 -3.953960419E+00 1.796711802E+00 -8.444086909E-01
 -3.953960419E+00 1.843749285E+00 -7.924519181E-01
 -3.953960419E+00 1.893211603E+00 -7.340462208E-01
 -3.953960419E+00 1.945182562E+00 -6.685899496E-01
 -3.953960419E+00 1.999744296E+00 -5.961941481E-01
 -3.953960419E+00 2.056976080E+00 -5.184607506E-01
 -3.953960419E+00 2.116954088E+00 -4.398675561E-01
 -3.953960419E+00 2.179749727E+00 -3.666623235E-01
 -3.953960419E+00 2.245429754E+00 -2.797962725E-01
 -3.953960419E+00 2.314054728E+00 -1.904677451E-01
 -3.953960419E+00 2.385678291E+00 -9.374244511E-02
 -3.953960419E+00 2.460346222E+00 -1.984422095E-02
 -3.953960419E+00 2.538095474E+00 -7.656157832E-04
 -3.953960419E+00 2.618952990E+00 2.722670615E-06
 -3.953960419E+00 2.702934742E+00 5.294122047E-07
 -3.953960419E+00 2.790044785E+00 4.890482046E-07
 -3.953960419E+00 2.880274057E+00 4.955749091E-07
 -3.953960419E+00 2.973600626E+00 5.056883197E-07
 -3.953960419E+00 3.069987059E+00 5.143129442E-07
 -3.953960419E+00 3.169380903E+00 5.225838322E-07
 -3.953960419E+00 3.271713972E+00 5.299920645E-07
 -3.953960419E+00 3.376901865E+00 5.366093774E-07
 -3.953960419E+00 3.484843016E+00 5.423280527E-07
 -3.953960419E+00 3.595419168E+00 5.471069926E-07
 -3.953960419E+00 3.708495617E+00 5.508958338E-07
 -3.953960419E+00 3.823920965E+00 5.536586514E-07
 -3.953960419E+00 3.941527367E+00 5.553687288E-07
 -3.953960419E+00 4.061131954E+00 5.560102636E-07
 -3.953960419E+00 4.182537556E+00 5.555785378E-07
 -3.953960419E+00 4.305533409E+00 5.540797474E-07
 -3.953960419E+00 4.429896355E+00 5.515308885E-07
 -3.953960419E+00 4.555392742E+00 5.479589618E-07
 -3.953960419E+00 4.681780815E+00 5.434005175E-07
 -3.953960419E+00 4.808810234E+00 5.379005756E-07
 -3.953960419E+00 4.936226845E+00 5.315115459E-07
 -3.953960419E+00 5.063773155E+00 5.242922612E-07
 -3.953960419E+00 5.191189766E+00 5.163066703E-07
 -3.953960419E+00 5.318219185E+00 5.076226444E-07
 -3.953960419E+00 5.444607258E+00 4.983108965E-07
 -3.953960419E+00 5.570103645E+00 4.884436748E-07
 -3.953960419E+00 5.694466591E+00 4.780938525E-07
 -3.953960419E+00 5.817462444E+00 4.673338481E-07
 -3.953960419E+00 5.938868046E+00 4.562348579E-07
 -3.953960419E+00 6.058472633E+00 4.448660889E-07
 -3.953960419E+00 6.176079273E+00 4.332941330E-07
 -3.953960419E+00 6.291504383E+00 4.215821718E-07
 -3.953960419E+00 6.404580593E+00 4.097906015E-07
 -3.953960419E+00 6.515157223E+00 3.979735936E-07
 -3.953960419E+00 6.623098373E+00 3.861887592E-07
 -3.953960419E+00 6.728285789E+00 3.744677599E-07
 -3.953960419E+00 6.830619335E+00 3.628987031E-07
 -3.953960419E+00 6.930013180E+00 3.514016385E-07
 -3.953960419E+00 7.026399612E+00 3.404168751E-07
 -3.953960419E+00 7.119725704E+00 3.314936521E-07
 -3.953960419E+00 7.209955215E+00 3.758885327E-07
 -3.953960419E+00 7.297065258E+00 1.515778422E-06
 -3.953960419E+00 7.381046772E+00 6.396845129E-05
 -3.953960419E+00 7.461904526E+00 3.557379823E-03
 -3.953960419E+00 7.539653778E+00 3.412241861E-02
 -3.953960419E+00 7.614321709E+00 1.179241017E-01
 -3.953960419E+00 7.685945511E+00 2.158976495E-01
 -3.953960419E+00 7.754570484E+00 3.068875670E-01
 -3.953960419E+00 7.820250511E+00 3.926306665E-01
 -3.953960419E+00 7.883046150E+00 4.674171209E-01
 -3.953960419E+00 7.943023682E+00 5.465756059E-01
 -3.953960419E+00 8.000255585E+00 6.239452362E-01
 -3.953960419E+00 8.054817200E+00 6.955400109E-01
 -3.953960419E+00 8.106788635E+00 7.599785328E-01
 -3.953960419E+00 8.156250954E+00 8.172922134E-01
 -3.953960419E+00 8.203288078E+00 8.681502938E-01
 -3.953960419E+00 8.247985840E+00 9.134193659E-01
 -3.953960419E+00 8.290431023E+00 9.539346099E-01
 -3.953960419E+00 8.330708504E+00 9.904047251E-01
 -3.953960419E+00 8.368906021E+00 1.023400307E+00
 -3.953960419E+00 8.405107498E+00 1.053381443E+00
 -3.953960419E+00 8.439397812E+00 1.080732703E+00
 -3.953960419E+00 8.471859932E+00 1.105788231E+00
 -3.953960419E+00 8.502576828E+00 1.128844261E+00
 -3.953960419E+00 8.531625748E+00 1.148935556E+00
 -3.953960419E+00 8.559086800E+00 1.167451620E+00
 -3.953960419E+00 8.585034370E+00 1.184889436E+00
 -3.953960419E+00 8.609540939E+00 1.200963855E+00
 -3.953960419E+00 8.632678986E+00 1.215786576E+00
 -3.953960419E+00 8.654516220E+00 1.229456544E+00
 -3.953960419E+00 8.675118446E+00 1.242063880E+00
 -3.953960419E+00 8.694549561E+00 1.253689051E+00
 -3.953960419E+00 8.712869644E+00 1.264404297E+00
 -3.953960419E+00 8.730137825E+00 1.274274111E+00
 -3.953960419E+00 8.746410370E+00 1.283356071E+00
 -3.953960419E+00 8.761739731E+00 1.291702032E+00
 -3.953960419E+00 8.776177406E+00 1.299357772E+00
 -3.953960419E+00 8.789772987E+00 1.306364536E+00
 -3.953960419E+00 8.802571297E+00 1.312759280E+00
 -3.953960419E+00 8.814618111E+00 1.318574905E+00
 -3.953960419E+00 8.825954437E+00 1.323840857E+00
 -3.953960419E+00 8.836620331E+00 1.328583241E+00
 -3.953960419E+00 8.846653938E+00 1.332825422E+00
 -3.953960419E+00 8.856091499E+00 1.336587548E+00
 -3.953960419E+00 8.864966393E+00 1.339887977E+00
 -3.953960419E+00 8.873311043E+00 1.342741966E+00
 -3.953960419E+00 8.881156921E+00 1.345162988E+00
 -3.953960419E+00 8.888532639E+00 1.347161770E+00
 -3.953960419E+00 8.895464897E+00 1.348747730E+00
 -3.953960419E+00 8.901980400E+00 1.349927306E+00
 -3.953960419E+00 8.908102989E+00 1.350705147E+00
 -3.953960419E+00 8.913856506E+00 1.351083875E+00
 -3.953960419E+00 8.919261932E+00 1.351063609E+00
 -3.953960419E+00 8.924340248E+00 1.350642204E+00
 -3.953960419E+00 8.929110527E+00 1.349815011E+00
 -3.953960419E+00 8.933590889E+00 1.348574758E+00
 -3.953960419E+00 8.937800407E+00 1.346911311E+00
 -3.953960419E+00 8.941753387E+00 1.344811440E+00
 -3.953960419E+00 8.945466042E+00 1.342258215E+00
 -3.953960419E+00 8.948951721E+00 1.339231253E+00
 -3.953960419E+00 8.952225685E+00 1.335705876E+00
 -3.953960419E+00 8.955299377E+00 1.331652641E+00
 -3.953960419E+00 8.958185196E+00 1.327036858E+00
 -3.953960419E+00 8.960895538E+00 1.321817875E+00
 -3.953960419E+00 8.963439941E+00 1.315948367E+00
 -3.953960419E+00 8.965827942E+00 1.309372902E+00
 -3.953960419E+00 8.968070030E+00 1.302027941E+00
 -3.953960419E+00 8.970174789E+00 1.293839335E+00
 -3.953960419E+00 8.972150803E+00 1.284721494E+00
 -3.953960419E+00 8.974005699E+00 1.274576068E+00
 -3.953960419E+00 8.975747108E+00 1.263288617E+00
 -3.953960419E+00 8.977380753E+00 1.250727773E+00
 -3.953960419E+00 8.978915215E+00 1.236741424E+00
 -3.953960419E+00 8.980354309E+00 1.221154332E+00
 -3.953960419E+00 8.981705666E+00 1.203764081E+00
 -3.953960419E+00 8.982974052E+00 1.184338093E+00
 -3.953960419E+00 8.984163284E+00 1.163151026E+00
 -3.953960419E+00 8.985280991E+00 1.138357639E+00
 -3.953960419E+00 8.986329079E+00 1.109298229E+00
 -3.953960419E+00 8.987312317E+00 1.076884031E+00
 -3.953960419E+00 8.988235474E+00 1.040696740E+00
 -3.953960419E+00 8.989102364E+00 1.000332594E+00
 -3.953960419E+00 8.989914894E+00 9.554160237E-01
 -3.953960419E+00 8.990677834E+00 9.056585431E-01
 -3.953960419E+00 8.991394043E+00 8.508717418E-01
 -3.953960419E+00 8.992066383E+00 7.910304070E-01
 -3.953960419E+00 8.992696762E+00 7.263052464E-01
 -3.953960419E+00 8.993288040E+00 6.525821090E-01
 -3.953960419E+00 8.993843079E+00 5.709667206E-01
 -3.953960419E+00 8.994363785E+00 4.850099385E-01
 -3.953960419E+00 8.994853020E+00 3.971090615E-01
 -3.953960419E+00 8.995311737E+00 3.111647367E-01
 -3.953960419E+00 8.995741844E+00 2.317727208E-01
 -3.953960419E+00 8.996146202E+00 1.632229537E-01
 -3.953960419E+00 8.996524811E+00 1.083191782E-01
 -3.953960419E+00 8.996880531E+00 6.765878946E-02
 -3.953960419E+00 8.997214317E+00 3.978639841E-02
 -3.953960419E+00 8.997527122E+00 2.203277498E-02
 -3.953960419E+00 8.997820854E+00 1.147767343E-02
 -3.953960419E+00 8.998096466E+00 5.602816585E-03
 -3.953960419E+00 8.998354912E+00 2.542454517E-03
 -3.953960419E+00 8.998598099E+00 1.057821559E-03
 -3.953960419E+00 8.998825073E+00 3.946928191E-04
 -3.953960419E+00 8.999038696E+00 1.274799142E-04
 -3.953960419E+00 8.999238968E+00 3.362838834E-05
 -3.953960419E+00 8.999427795E+00 6.542788469E-06
 -3.953960419E+00 8.999604225E+00 7.708447924E-07
 -3.953960419E+00 8.999769211E+00 3.563010154E-08
 -3.953960419E+00 8.999924660E+00 2.213104561E-10
ZONE T="x/H=1"
 1.000000000E+00 0.000000000E+00 0.000000000E+00
 1.000000000E+00 1.500749349E-04 -4.291065861E-14
 1.000000000E+00 3.087310179E-04 -9.412197584E-13
 1.000000000E+00 4.765522899E-04 -8.321658466E-12
 1.000000000E+00 6.541581242E-04 -4.453869912E-11
 1.000000000E+00 8.422057144E-04 -1.739545730E-10
 1.000000000E+00 1.041392214E-03 -5.491111454E-10
 1.000000000E+00 1.252457150E-03 -1.489262824E-09
 1.000000000E+00 1.476185862E-03 -3.608213950E-09
 1.000000000E+00 1.713411068E-03 -8.015801356E-09
 1.000000000E+00 1.965016825E-03 -1.662747628E-08
 1.000000000E+00 2.231941791E-03 -3.262991655E-08
 1.000000000E+00 2.515181201E-03 -6.116820828E-08
 1.000000000E+00 2.815792104E-03 -1.103434428E-07
 1.000000000E+00 3.134895815E-03 -1.926373017E-07
 1.000000000E+00 3.473682096E-03 -3.269155684E-07
 1.000000000E+00 3.833413823E-03 -5.412017003E-07
 1.000000000E+00 4.215430468E-03 -8.764513382E-07
 1.000000000E+00 4.621152766E-03 -1.391595220E-06
 1.000000000E+00 5.052087829E-03 -2.170132348E-06
 1.000000000E+00 5.509833805E-03 -3.328525509E-06
 1.000000000E+00 5.996085238E-03 -5.026519375E-06
 1.000000000E+00 6.512639113E-03 -7.479211945E-06
 1.000000000E+00 7.061398588E-03 -1.097008681E-05
 1.000000000E+00 7.644380908E-03 -1.586309554E-05
 1.000000000E+00 8.263722993E-03 -2.260981273E-05
 1.000000000E+00 8.921687491E-03 -3.174423546E-05
 1.000000000E+00 9.620669298E-03 -4.385195643E-05
 1.000000000E+00 1.036320440E-02 -5.949099796E-05
 1.000000000E+00 1.115197316E-02 -7.902670768E-05
 1.000000000E+00 1.198981050E-02 -1.023211807E-04
 1.000000000E+00 1.287971530E-02 -1.281865989E-04
 1.000000000E+00 1.382485218E-02 -1.534737530E-04
 1.000000000E+00 1.482856460E-02 -1.716341649E-04
 1.000000000E+00 1.589438133E-02 -1.705942559E-04
 1.000000000E+00 1.702602394E-02 -1.298776479E-04
 1.000000000E+00 1.822741330E-02 -1.720663568E-05
 1.000000000E+00 1.950268447E-02 2.146115294E-04
 1.000000000E+00 2.085618302E-02 6.289268495E-04
 1.000000000E+00 2.229248732E-02 1.302505727E-03
 1.000000000E+00 2.381640300E-02 2.317241859E-03
 1.000000000E+00 2.543297783E-02 3.747048788E-03
 1.000000000E+00 2.714750916E-02 5.643843208E-03
 1.000000000E+00 2.896554396E-02 8.028226905E-03
 1.000000000E+00 3.089288995E-02 1.088864170E-02
 1.000000000E+00 3.293561935E-02 1.418829150E-02
 1.000000000E+00 3.510007635E-02 1.787558384E-02
 1.000000000E+00 3.739286959E-02 2.189346217E-02
 1.000000000E+00 3.982088342E-02 2.618525922E-02
 1.000000000E+00 4.239127785E-02 3.069699183E-02
 1.000000000E+00 4.511147365E-02 3.537719324E-02
 1.000000000E+00 4.798916727E-02 4.017568380E-02
 1.000000000E+00 5.103230849E-02 4.504230618E-02
 1.000000000E+00 5.424910039E-02 4.992594570E-02
 1.000000000E+00 5.764798820E-02 5.477373675E-02
 1.000000000E+00 6.123762950E-02 5.953056738E-02
 1.000000000E+00 6.502689421E-02 6.413897127E-02
 1.000000000E+00 6.902483106E-02 6.853903085E-02
 1.000000000E+00 7.324063778E-02 7.266834378E-02
 1.000000000E+00 7.768364996E-02 7.646227628E-02
 1.000000000E+00 8.236327022E-02 7.985430956E-02
 1.000000000E+00 8.728893846E-02 8.277633041E-02
 1.000000000E+00 9.247011691E-02 8.515925705E-02
 1.000000000E+00 9.791619331E-02 8.693391830E-02
 1.000000000E+00 1.036364213E-01 8.803229779E-02
 1.000000000E+00 1.096399054E-01 8.838924766E-02
 1.000000000E+00 1.159354597E-01 8.794455975E-02
 1.000000000E+00 1.225315928E-01 8.664535731E-02
 1.000000000E+00 1.294363886E-01 8.444865793E-02
 1.000000000E+00 1.366574168E-01 8.132376522E-02
 1.000000000E+00 1.442016512E-01 7.725438476E-02
 1.000000000E+00 1.520753801E-01 7.224015892E-02
 1.000000000E+00 1.602840871E-01 6.629735231E-02
 1.000000000E+00 1.688323319E-01 5.945859477E-02
 1.000000000E+00 1.777237058E-01 5.177139118E-02
 1.000000000E+00 1.869606376E-01 4.329580069E-02
 1.000000000E+00 1.965443641E-01 3.410110623E-02
 1.000000000E+00 2.064747959E-01 2.426218800E-02
 1.000000000E+00 2.167504281E-01 1.385580655E-02
 1.000000000E+00 2.273682207E-01 2.957370831E-03
 1.000000000E+00 2.383235991E-01 -8.361580782E-03
 1.000000000E+00 2.496102750E-01 -2.003475279E-02
 1.000000000E+00 2.612203062E-01 -3.200161457E-02
 1.000000000E+00 2.731439471E-01 -4.420682788E-02
 1.000000000E+00 2.853696942E-01 -5.659915507E-02
 1.000000000E+00 2.978843451E-01 -6.912992895E-02
 1.000000000E+00 3.106728196E-01 -8.175113797E-02
 1.000000000E+00 3.237183690E-01 -9.441398829E-02
 1.000000000E+00 3.370026648E-01 -1.070676148E-01
 1.000000000E+00 3.505057096E-01 -1.196578592E-01
 1.000000000E+00 3.642061055E-01 -1.321269572E-01
 1.000000000E+00 3.780810535E-01 -1.444131732E-01
 1.000000000E+00 3.921067119E-01 -1.564512253E-01
 1.000000000E+00 4.062580764E-01 -1.681724340E-01
 1.000000000E+00 4.205094278E-01 -1.795056611E-01
 1.000000000E+00 4.348344207E-01 -1.903778613E-01
 1.000000000E+00 4.492062032E-01 -2.007150054E-01
 1.000000000E+00 4.635978639E-01 -2.104431242E-01
 1.000000000E+00 4.779824615E-01 -2.194891721E-01
 1.000000000E+00 4.923332930E-01 -2.277821600E-01
 1.000000000E+00 5.066241622E-01 -2.352542281E-01
 1.000000000E+00 5.208296180E-01 -2.418424636E-01
 1.000000000E+00 5.349249244E-01 -2.474906743E-01
 1.000000000E+00 5.488865972E-01 -2.521521449E-01
 1.000000000E+00 5.626922846E-01 -2.557926774E-01
 1.000000000E+00 5.763211846E-01 -2.583947182E-01
 1.000000000E+00 5.897538066E-01 -2.599622011E-01
 1.000000000E+00 6.029724479E-01 -2.605259717E-01
 1.000000000E+00 6.159611940E-01 -2.601496279E-01
 1.000000000E+00 6.287056804E-01 -2.589351833E-01
 1.000000000E+00 6.411936283E-01 -2.570279837E-01
 1.000000000E+00 6.534144878E-01 -2.546201050E-01
 1.000000000E+00 6.653595567E-01 -2.519526482E-01
 1.000000000E+00 6.770219207E-01 -2.493160069E-01
 1.000000000E+00 6.883966327E-01 -2.470506877E-01
 1.000000000E+00 6.994803548E-01 -2.455354482E-01
 1.000000000E+00 7.102713585E-01 -2.451262027E-01
 1.000000000E+00 7.207696438E-01 -2.463214844E-01
 1.000000000E+00 7.309766412E-01 -2.497718632E-01
 1.000000000E+00 7.408953309E-01 -2.560247779E-01
 1.000000000E+00 7.505297661E-01 -2.657729685E-01
 1.000000000E+00 7.598854303E-01 -2.800220251E-01
 1.000000000E+00 7.689688206E-01 -2.999767661E-01
 1.000000000E+00 7.777875066E-01 -3.270864189E-01
 1.000000000E+00 7.863498926E-01 -3.630911410E-01
 1.000000000E+00 7.946652770E-01 -4.100410640E-01
 1.000000000E+00 8.027436137E-01 -4.702602327E-01
 1.000000000E+00 8.105954528E-01 -5.461573601E-01
 1.000000000E+00 8.182319403E-01 -6.400589943E-01
 1.000000000E+00 8.256042004E-01 -7.530049682E-01
 1.000000000E+00 8.326897025E-01 -8.848820329E-01
 1.000000000E+00 8.394981027E-01 -1.034630775E+00
 1.000000000E+00 8.460389972E-01 -1.200230241E+00
 1.000000000E+00 8.523222208E-01 -1.379039645E+00
 1.000000000E+00 8.583575487E-01 -1.568136930E+00
 1.000000000E+00 8.641546965E-01 -1.764635324E+00
 1.000000000E+00 8.697232008E-01 -1.965869427E+00
 1.000000000E+00 8.750725389E-01 -2.169489861E+00
 1.000000000E+00 8.802121878E-01 -2.373486519E+00
 1.000000000E+00 8.851511478E-01 -2.576156616E+00
 1.000000000E+00 8.898984194E-01 -2.776093006E+00
 1.000000000E+00 8.944627047E-01 -2.972137928E+00
 1.000000000E+00 8.988524675E-01 -3.163351059E+00
 1.000000000E+00 9.030758739E-01 -3.348976135E+00
 1.000000000E+00 9.071409106E-01 -3.528424025E+00
 1.000000000E+00 9.110552073E-01 -3.701236010E+00
 1.000000000E+00 9.148262739E-01 -3.867076159E+00
 1.000000000E+00 9.184611440E-01 -4.025701046E+00
 1.000000000E+00 9.219666123E-01 -4.176951885E+00
 1.000000000E+00 9.253494143E-01 -4.320749283E+00
 1.000000000E+00 9.286156893E-01 -4.457060337E+00
 1.000000000E+00 9.317715764E-01 -4.585911751E+00
 1.000000000E+00 9.348228574E-01 -4.707367897E+00
 1.000000000E+00 9.377749562E-01 -4.821520805E+00
 1.000000000E+00 9.406331778E-01 -4.928494453E+00
 1.000000000E+00 9.434025884E-01 -5.028433323E+00
 1.000000000E+00 9.460878968E-01 -5.121491909E+00
 1.000000000E+00 9.486937523E-01 -5.207841873E+00
 1.000000000E+00 9.512243867E-01 -5.287655354E+00
 1.000000000E+00 9.536840320E-01 -5.361114979E+00
 1.000000000E+00 9.560765624E-01 -5.428400517E+00
 1.000000000E+00 9.584057331E-01 -5.489692688E+00
 1.000000000E+00 9.606750607E-01 -5.545170784E+00
 1.000000000E+00 9.628879428E-01 -5.595009327E+00
 1.000000000E+00 9.650474787E-01 -5.639374256E+00
 1.000000000E+00 9.671568274E-01 -5.678431034E+00
 1.000000000E+00 9.692187309E-01 -5.712333202E+00
 1.000000000E+00 9.712360501E-01 -5.741232395E+00
 1.000000000E+00 9.732112885E-01 -5.765267849E+00
 1.000000000E+00 9.751468897E-01 -5.784573555E+00
 1.000000000E+00 9.770451784E-01 -5.799275875E+00
 1.000000000E+00 9.789084196E-01 -5.809492588E+00
 1.000000000E+00 9.807386398E-01 -5.815334320E+00
 1.000000000E+00 9.825378060E-01 -5.816905022E+00
 1.000000000E+00 9.843078852E-01 -5.814299583E+00
 1.000000000E+00 9.860506058E-01 -5.807608604E+00
 1.000000000E+00 9.877676368E-01 -5.796914577E+00
 1.000000000E+00 9.894605279E-01 -5.782295227E+00
 1.000000000E+00 9.911309481E-01 -5.763820648E+00
 1.000000000E+00 9.927802086E-01 -5.741559505E+00
 1.000000000E+00 9.944097996E-01 -5.715570927E+00
 1.000000000E+00 9.960208535E-01 -5.685916424E+00
 1.000000000E+00 9.976147413E-01 -5.652647972E+00
 1.000000000E+00 9.991925955E-01 -5.615816593E+00
 1.000000000E+00 1.000755548E+00 -5.575472355E+00
 1.000000000E+00 1.002304673E+00 -5.531661987E+00
 1.000000000E+00 1.003840923E+00 -5.484432697E+00
 1.000000000E+00 1.005365252E+00 -5.433833122E+00
 1.000000000E+00 1.006878734E+00 -5.379903793E+00
 1.000000000E+00 1.008381963E+00 -5.322699547E+00
 1.000000000E+00 1.009876132E+00 -5.262271881E+00
 1.000000000E+00 1.011361718E+00 -5.198689938E+00
 1.000000000E+00 1.012839675E+00 -5.131954670E+00
 1.000000000E+00 1.014318705E+00 -5.061727047E+00
 1.000000000E+00 1.015807629E+00 -4.987643719E+00
 1.000000000E+00 1.017307401E+00 -4.909659863E+00
 1.000000000E+00 1.018818736E+00 -4.827736855E+00
 1.000000000E+00 1.020342350E+00 -4.741863251E+00
 1.000000000E+00 1.021879435E+00 -4.652011395E+00
 1.000000000E+00 1.023430705E+00 -4.558200359E+00
 1.000000000E+00 1.024997234E+00 -4.460452080E+00
 1.000000000E+00 1.026580215E+00 -4.358798504E+00
 1.000000000E+00 1.028180480E+00 -4.253329277E+00
 1.000000000E+00 1.029799461E+00 -4.144129276E+00
 1.000000000E+00 1.031438231E+00 -4.031348228E+00
 1.000000000E+00 1.033098221E+00 -3.915154934E+00
 1.000000000E+00 1.034780741E+00 -3.795777321E+00
 1.000000000E+00 1.036487222E+00 -3.673495770E+00
 1.000000000E+00 1.038219213E+00 -3.548646688E+00
 1.000000000E+00 1.039978385E+00 -3.421619892E+00
 1.000000000E+00 1.041766405E+00 -3.292891502E+00
 1.000000000E+00 1.043585062E+00 -3.163000107E+00
 1.000000000E+00 1.045436382E+00 -3.032545567E+00
 1.000000000E+00 1.047322392E+00 -2.902204990E+00
 1.000000000E+00 1.049245119E+00 -2.772722006E+00
 1.000000000E+00 1.051206946E+00 -2.644877672E+00
 1.000000000E+00 1.053210378E+00 -2.519490242E+00
 1.000000000E+00 1.055257797E+00 -2.397398710E+00
 1.000000000E+00 1.057352066E+00 -2.279412985E+00
 1.000000000E+00 1.059496045E+00 -2.166314125E+00
 1.000000000E+00 1.061692715E+00 -2.058816195E+00
 1.000000000E+00 1.063945413E+00 -1.957532287E+00
 1.000000000E+00 1.066257596E+00 -1.862956643E+00
 1.000000000E+00 1.068632841E+00 -1.775457501E+00
 1.000000000E+00 1.071074963E+00 -1.695258617E+00
 1.000000000E+00 1.073588252E+00 -1.622434258E+00
 1.000000000E+00 1.076176882E+00 -1.556938529E+00
 1.000000000E+00 1.078845739E+00 -1.498589039E+00
 1.000000000E+00 1.081599474E+00 -1.447112679E+00
 1.000000000E+00 1.084443450E+00 -1.402143478E+00
 1.000000000E+00 1.087383270E+00 -1.363252997E+00
 1.000000000E+00 1.090424657E+00 -1.329970479E+00
 1.000000000E+00 1.093573928E+00 -1.301793456E+00
 1.000000000E+00 1.096837759E+00 -1.278209090E+00
 1.000000000E+00 1.100223184E+00 -1.258704424E+00
 1.000000000E+00 1.103737593E+00 -1.242777705E+00
 1.000000000E+00 1.107388973E+00 -1.229944825E+00
 1.000000000E+00 1.111185789E+00 -1.219747305E+00
 1.000000000E+00 1.115136862E+00 -1.211756587E+00
 1.000000000E+00 1.119251847E+00 -1.205577135E+00
 1.000000000E+00 1.123540759E+00 -1.200854421E+00
 1.000000000E+00 1.128014207E+00 -1.197276235E+00
 1.000000000E+00 1.132683516E+00 -1.194558740E+00
 1.000000000E+00 1.137560844E+00 -1.192442894E+00
 1.000000000E+00 1.142658949E+00 -1.190710902E+00
 1.000000000E+00 1.147991180E+00 -1.189182520E+00
 1.000000000E+00 1.153571963E+00 -1.187707424E+00
 1.000000000E+00 1.159416676E+00 -1.186165214E+00
 1.000000000E+00 1.165541291E+00 -1.184462547E+00
 1.000000000E+00 1.171962857E+00 -1.182528853E+00
 1.000000000E+00 1.178699493E+00 -1.180312395E+00
 1.000000000E+00 1.185770392E+00 -1.177776456E+00
 1.000000000E+00 1.193195820E+00 -1.174895644E+00
 1.000000000E+00 1.200997233E+00 -1.171651244E+00
 1.000000000E+00 1.209197283E+00 -1.168037176E+00
 1.000000000E+00 1.217820168E+00 -1.164062262E+00
 1.000000000E+00 1.226891041E+00 -1.159589887E+00
 1.000000000E+00 1.236445308E+00 -1.154558182E+00
 1.000000000E+00 1.246588945E+00 -1.149140477E+00
 1.000000000E+00 1.257356644E+00 -1.143310189E+00
 1.000000000E+00 1.268784761E+00 -1.136901140E+00
 1.000000000E+00 1.280911565E+00 -1.129884005E+00
 1.000000000E+00 1.293777347E+00 -1.122223020E+00
 1.000000000E+00 1.307424188E+00 -1.113884211E+00
 1.000000000E+00 1.321896553E+00 -1.104834914E+00
 1.000000000E+00 1.337240696E+00 -1.095046520E+00
 1.000000000E+00 1.353505373E+00 -1.084497333E+00
 1.000000000E+00 1.370741010E+00 -1.073177099E+00
 1.000000000E+00 1.389000773E+00 -1.061089158E+00
 1.000000000E+00 1.408339858E+00 -1.048254490E+00
 1.000000000E+00 1.428815722E+00 -1.034715533E+00
 1.000000000E+00 1.450488210E+00 -1.020610094E+00
 1.000000000E+00 1.473419428E+00 -1.005982041E+00
 1.000000000E+00 1.497673512E+00 -9.875112176E-01
 1.000000000E+00 1.523316979E+00 -9.647872448E-01
 1.000000000E+00 1.550418496E+00 -9.411121607E-01
 1.000000000E+00 1.579048634E+00 -9.164330363E-01
 1.000000000E+00 1.609279990E+00 -8.904536963E-01
 1.000000000E+00 1.641186953E+00 -8.629523516E-01
 1.000000000E+00 1.674845338E+00 -8.337270021E-01
 1.000000000E+00 1.710332632E+00 -8.025584221E-01
 1.000000000E+00 1.747727394E+00 -7.691947818E-01
 1.000000000E+00 1.787108898E+00 -7.333370447E-01
 1.000000000E+00 1.828557253E+00 -6.946367025E-01
 1.000000000E+00 1.872152448E+00 -6.527345181E-01
 1.000000000E+00 1.917974591E+00 -6.073703170E-01
 1.000000000E+00 1.966102839E+00 -5.585793853E-01
 1.000000000E+00 2.016615391E+00 -5.070112944E-01
 1.000000000E+00 2.069588423E+00 -4.540823698E-01
 1.000000000E+00 2.125096083E+00 -3.964104652E-01
 1.000000000E+00 2.183209419E+00 -3.275435567E-01
 1.000000000E+00 2.243995428E+00 -2.530839741E-01
 1.000000000E+00 2.307517290E+00 -1.801008582E-01
 1.000000000E+00 2.373832703E+00 -1.099382415E-01
 1.000000000E+00 2.442992687E+00 -5.089003593E-02
 1.000000000E+00 2.515042067E+00 -1.343456283E-02
 1.000000000E+00 2.590017557E+00 6.096475990E-04
 1.000000000E+00 2.667947292E+00 1.459010062E-03
 1.000000000E+00 2.748849630E+00 2.438058873E-04
 1.000000000E+00 2.832732677E+00 9.997327652E-06
 1.000000000E+00 2.919592857E+00 3.276456027E-06
 1.000000000E+00 3.009414673E+00 3.144180482E-06
 1.000000000E+00 3.102169275E+00 3.053331511E-06
 1.000000000E+00 3.197814703E+00 2.965946351E-06
 1.000000000E+00 3.296294689E+00 2.877244697E-06
 1.000000000E+00 3.397537470E+00 2.787693347E-06
 1.000000000E+00 3.501456976E+00 2.697762056E-06
 1.000000000E+00 3.607951164E+00 2.607792339E-06
 1.000000000E+00 3.716902971E+00 2.518125029E-06
 1.000000000E+00 3.828179598E+00 2.429084816E-06
 1.000000000E+00 3.941633224E+00 2.340973879E-06
 1.000000000E+00 4.057101250E+00 2.254068704E-06
 1.000000000E+00 4.174407482E+00 2.168617129E-06
 1.000000000E+00 4.293362617E+00 2.084839480E-06
 1.000000000E+00 4.413764000E+00 2.002929477E-06
 1.000000000E+00 4.535399437E+00 1.923052196E-06
 1.000000000E+00 4.658046722E+00 1.845346219E-06
 1.000000000E+00 4.781475544E+00 1.769924324E-06
 1.000000000E+00 4.905449390E+00 1.696875188E-06
 1.000000000E+00 5.029727459E+00 1.626264066E-06
 1.000000000E+00 5.154065132E+00 1.558135523E-06
 1.000000000E+00 5.278218746E+00 1.492513888E-06
 1.000000000E+00 5.401944160E+00 1.429406780E-06
 1.000000000E+00 5.525001526E+00 1.368805442E-06
 1.000000000E+00 5.647155285E+00 1.310687594E-06
 1.000000000E+00 5.768176556E+00 1.255017992E-06
 1.000000000E+00 5.887844563E+00 1.201751047E-06
 1.000000000E+00 6.005949974E+00 1.150835828E-06
 1.000000000E+00 6.122292519E+00 1.102226520E-06
 1.000000000E+00 6.236685753E+00 1.055878670E-06
 1.000000000E+00 6.348957539E+00 1.011736686E-06
 1.000000000E+00 6.458948612E+00 9.700232795E-07
 1.000000000E+00 6.566515446E+00 9.339769917E-07
 1.000000000E+00 6.671530724E+00 9.265312997E-07
 1.000000000E+00 6.773881435E+00 1.082489121E-06
 1.000000000E+00 6.873472214E+00 2.127679863E-06
 1.000000000E+00 6.970221519E+00 7.281881608E-06
 1.000000000E+00 7.064064980E+00 2.502252755E-05
 1.000000000E+00 7.154951572E+00 8.040698594E-05